432
Lattice="19.9433911883 0.0 0.0 0.0 19.9433911883 0.0 0.0 0.0 19.9433911883" Properties=species:S:1:pos:R:3:Z:I:1:displacements:R:3:forces:R:3 pbc="T T T"
Ti       0.00000000       0.00000000       0.00000000       22      -0.13997547      -0.19682410       0.01227018       0.17359652       0.15237010       0.40220309 
Ti       1.66194927       1.66194927       1.66194927       22       0.34659584      -0.41910813      -0.14935205      -0.91199370      -0.15957960      -0.12676323 
Ti       3.32389853       0.00000000       0.00000000       22       0.68725970      -0.09603314       0.05885630      -0.18223619      -0.06581924       0.20113680 
Ti       4.98584780       1.66194927       1.66194927       22       0.60676439       0.06956204      -0.27764989       0.26713043      -0.46828868       1.42790245 
Ti       6.64779706       0.00000000       0.00000000       22       0.21312976      -0.24006437      -0.27089395      -0.08375993      -0.01958388       0.41294978 
Ti       8.30974633       1.66194927       1.66194927       22       0.30604704      -0.49826558      -0.32662627      -0.32875525       1.96203848      -0.15860241 
Ti       9.97169559       0.00000000       0.00000000       22      -0.13878785      -0.36597123      -0.01768054       0.91643483       0.20042104      -0.15311964 
Ti      11.63364486       1.66194927       1.66194927       22       0.02285297       0.28160666       0.04545118      -0.60418268      -0.58433291      -0.55046337 
Ti      13.29559413       0.00000000       0.00000000       22      -0.39483009      -0.30599324      -0.20167068       0.49418647       0.50822269       0.18413078 
Ti      14.95754339       1.66194927       1.66194927       22       0.08770122       0.32773297      -0.23096731      -0.89592660      -0.13053364      -0.43274547 
Ti      16.61949266       0.00000000       0.00000000       22      -0.40802345       0.01165788       0.13529112       0.45388055      -0.85361788      -0.12205494 
Ti      18.28144192       1.66194927       1.66194927       22      -0.29081045       0.09162751       0.13275820       0.25070725       0.36763137      -0.50237522 
Ti       0.00000000       3.32389853       0.00000000       22      -0.02792570      -0.01680936      -0.17465483       0.03414792      -0.14669011      -0.03606191 
Ti       1.66194927       4.98584780       1.66194927       22       0.33342976      -0.22494169       0.03990866      -0.32700305       2.04237604      -0.97915243 
Ti       3.32389853       3.32389853       0.00000000       22       0.52410414      -0.31305745      -0.01012313      -0.51553352       0.54149752      -0.71897291 
Ti       4.98584780       4.98584780       1.66194927       22       0.22644924       0.31630655      -0.10388227      -1.08411157      -1.43016016       0.27605201 
Ti       6.64779706       3.32389853       0.00000000       22       0.05282444       0.06858429      -0.21913074      -0.00303478       1.23488139       0.82210640 
Ti       8.30974633       4.98584780       1.66194927       22      -0.06311211      -0.02268715       0.38754884      -0.55567581      -0.31037523      -0.50842277 
Ti       9.97169559       3.32389853       0.00000000       22      -0.16888432       0.34942071      -0.05407777       0.38354094      -0.13995505       0.84977188 
Ti      11.63364486       4.98584780       1.66194927       22       0.28539588      -0.29982459      -0.25832712      -0.41445187       0.17050361      -0.05315176 
Ti      13.29559413       3.32389853       0.00000000       22      -0.27031881      -0.56077214      -0.63203403       0.78499241       0.61662603       0.42145586 
Ti      14.95754339       4.98584780       1.66194927       22      -0.30334759      -0.25040470      -0.44369791       0.14750005       0.18203520       0.64911138 
Ti      16.61949266       3.32389853       0.00000000       22       0.03193097       0.18176592      -0.43098210      -0.13741182      -0.02283113       0.05891507 
Ti      18.28144192       4.98584780       1.66194927       22      -0.10352524       0.12329743      -0.38524347      -0.02585070      -1.05591658       1.05204253 
Ti       0.00000000       6.64779706       0.00000000       22       0.11360267      -0.40084945       0.11249180       0.57949336       0.68623644      -0.96304406 
Ti       1.66194927       8.30974633       1.66194927       22       0.09851107      -0.53764969       0.22707881      -0.10417192      -0.13463281      -0.04784025 
Ti       3.32389853       6.64779706       0.00000000       22      -0.10336913      -0.00274756      -0.15525180      -0.38850793       0.45865606       0.01451873 
Ti       4.98584780       8.30974633       1.66194927       22       0.14726145      -0.08931225      -0.32573767       0.23968876      -0.74654795      -0.30677576 
Ti       6.64779706       6.64779706       0.00000000       22       0.17217419      -0.47964255      -0.10006485       1.09152656       0.85987201      -1.28291712 
Ti       8.30974633       8.30974633       1.66194927       22      -0.30898905      -0.00870944      -0.11121873       0.47305007      -1.37531206      -0.51274358 
Ti       9.97169559       6.64779706       0.00000000       22       0.13947382      -0.14144681       0.33343324      -0.52749593       0.34750733      -0.39267343 
Ti      11.63364486       8.30974633       1.66194927       22      -0.38268972       0.51132597       0.50347782       0.98978837      -1.37756257      -1.04819694 
Ti      13.29559413       6.64779706       0.00000000       22      -0.21737205       0.33070635       0.15763982      -0.89214605      -0.10672161       0.62897398 
Ti      14.95754339       8.30974633       1.66194927       22       0.23816225       0.25244004      -0.53642973      -0.46222589      -0.07584724       1.60287774 
Ti      16.61949266       6.64779706       0.00000000       22      -0.21339956      -0.44982327      -0.21287334       0.35326418       1.31263981      -0.18468171 
Ti      18.28144192       8.30974633       1.66194927       22      -0.21072225      -0.06443579      -0.15803909      -0.25461397       0.60619080      -1.41391496 
Ti       0.00000000       9.97169559       0.00000000       22       0.14940344      -0.04977864       0.32243981       0.56542470      -0.57127997       0.04243801 
Ti       1.66194927      11.63364486       1.66194927       22      -0.04692528       0.39839071       0.38060785       0.89440253      -0.93146672      -0.37006894 
Ti       3.32389853       9.97169559       0.00000000       22      -0.24152061      -0.40121103       0.38201619      -0.09727555       1.33365012      -0.60913694 
Ti       4.98584780      11.63364486       1.66194927       22      -0.39187849       0.10872587       0.07051535       0.01608836       0.18373931      -0.82119423 
Ti       6.64779706       9.97169559       0.00000000       22       0.11374888       0.26238559       0.38190289      -1.66958845       0.04545932      -1.15074072 
Ti       8.30974633      11.63364486       1.66194927       22       0.22419753      -0.15456069      -0.24565687      -0.39483969       0.83651767       1.81785486 
Ti       9.97169559       9.97169559       0.00000000       22      -0.28424026      -0.14617908       0.07337270       1.17754794      -0.17523335      -1.42336627 
Ti      11.63364486      11.63364486       1.66194927       22      -0.22730006      -0.24865747       0.40358754      -0.32253605       0.44362341      -0.05935526 
Ti      13.29559413       9.97169559       0.00000000       22      -0.60645286       0.36243305       0.00679204       0.80066255      -1.07254399      -0.05180471 
Ti      14.95754339      11.63364486       1.66194927       22       0.09814810      -0.08221883       0.05761999       0.17770373       0.13365726      -0.69197469 
Ti      16.61949266       9.97169559       0.00000000       22       0.11704470       0.16212361      -0.41438026      -0.08381331      -0.14314865       0.58419020 
Ti      18.28144192      11.63364486       1.66194927       22      -0.06368018      -0.13748887      -0.01448530       0.00690783      -0.88767652       0.43446102 
Ti       0.00000000      13.29559413       0.00000000       22       0.04376684       0.02527508       0.28950397      -1.08291392       0.10118268      -0.03670045 
Ti       1.66194927      14.95754339       1.66194927       22       0.54352540      -0.22518619       0.10372872      -1.58989382      -0.08159536       0.96036819 
Ti       3.32389853      13.29559413       0.00000000       22       0.21627157       0.44921367      -0.24442563      -1.51480831      -0.33622070       1.58152450 
Ti       4.98584780      14.95754339       1.66194927       22       0.23617242       0.16451828       0.06263631      -0.09603151       0.06360742       0.01321833 
Ti       6.64779706      13.29559413       0.00000000       22      -0.16229135       0.03158379       0.13964374       0.52107284      -0.07652551       0.33829661 
Ti       8.30974633      14.95754339       1.66194927       22      -0.02613632       0.03512822      -0.21801571      -0.01904634      -0.28815124       0.41040233 
Ti       9.97169559      13.29559413       0.00000000       22       0.28797467      -0.42547982      -0.13334233      -1.22272999       0.34913210       1.14048973 
Ti      11.63364486      14.95754339       1.66194927       22      -0.74618579       0.19616483      -0.09708547       1.53274848      -0.38853513       0.23330133 
Ti      13.29559413      13.29559413       0.00000000       22      -0.31693385       0.05096284       0.52974732       0.04333846      -0.14328687      -1.11086535 
Ti      14.95754339      14.95754339       1.66194927       22       0.15299054      -0.46898869       0.28959646      -0.39178953       1.56176820      -1.62871280 
Ti      16.61949266      13.29559413       0.00000000       22       0.34386866      -0.12525854      -0.22369651      -0.23127686       0.09889048       0.44159479 
Ti      18.28144192      14.95754339       1.66194927       22      -0.14660841       0.50501034      -0.29488049      -0.04677781      -1.67271562       1.05332931 
Ti       0.00000000      16.61949266       0.00000000       22       0.50357777       0.23027552       0.22534223      -0.95521250      -0.00363395       0.51418264 
Ti       1.66194927      18.28144192       1.66194927       22       0.08044304       0.22004296       0.24449276       0.24095034      -0.37179948      -0.67090992 
Ti       3.32389853      16.61949266       0.00000000       22      -0.04484883      -0.16310509       0.17443322       0.04027443       1.45404589       0.28156043 
Ti       4.98584780      18.28144192       1.66194927       22       0.42859317      -0.37636166      -0.19307149       0.44074570      -0.02283496       0.64462005 
Ti       6.64779706      16.61949266       0.00000000       22       0.55552128       0.31502647      -0.25915284      -0.91303689      -0.71596550       0.51573110 
Ti       8.30974633      18.28144192       1.66194927       22       0.36448354      -0.39658923       0.06595148      -0.28285806      -0.06783374       0.54406350 
Ti       9.97169559      16.61949266       0.00000000       22       0.40072674       0.35732106      -0.33527651      -1.15642295      -0.53478766      -0.32825524 
Ti      11.63364486      18.28144192       1.66194927       22       0.01366637      -0.23288882       0.32895987      -0.69405618       0.79055777      -0.24747014 
Ti      13.29559413      16.61949266       0.00000000       22      -0.43881629       0.11022759      -0.10860880       1.68997852      -0.45957432       0.12746102 
Ti      14.95754339      18.28144192       1.66194927       22      -0.27934497       0.25456929       0.30452064      -0.43373205      -1.19985389      -0.29791180 
Ti      16.61949266      16.61949266       0.00000000       22      -0.82687547       0.25745387      -0.05307589       0.59434255       0.03921854       0.35322223 
Ti      18.28144192      18.28144192       1.66194927       22      -0.30450478      -0.37648950      -0.12576800       0.20142232       2.04784899      -0.55279530 
Ti       0.00000000       0.00000000       3.32389853       22      -0.07217012       0.16467973      -0.18462990      -0.44707891      -0.42653168      -0.35878586 
Ti       1.66194927       1.66194927       4.98584780       22       0.43965455      -0.64857584      -0.49470641      -0.05389576       1.45098533       0.87746626 
Ti       3.32389853       0.00000000       3.32389853       22       0.52620857      -0.54596042      -0.22317192      -0.11032892       0.66371527      -0.28020552 
Ti       4.98584780       1.66194927       4.98584780       22       0.39752170      -0.34608436      -0.57438781      -1.99466916       0.41707591       1.12833858 
Ti       6.64779706       0.00000000       3.32389853       22       0.51451158       0.08121437      -0.14740060      -0.63125422      -0.60117438       0.12482628 
Ti       8.30974633       1.66194927       4.98584780       22       0.32228773      -0.21273086       0.87746113       0.22006463       0.24017712      -1.81966617 
Ti       9.97169559       0.00000000       3.32389853       22      -0.25093199      -0.00555011      -0.06283724       1.89448453      -0.08821173       1.08688005 
Ti      11.63364486       1.66194927       4.98584780       22      -0.01241601       0.11519893      -0.07222704      -0.31767647      -0.18774975       0.37259731 
Ti      13.29559413       0.00000000       3.32389853       22      -0.16387866       0.45555917      -0.26431031       0.65409070      -0.50190862       0.20144089 
Ti      14.95754339       1.66194927       4.98584780       22      -0.12313594      -0.26700594       0.07104179       0.30474740      -0.30245403       0.37970457 
Ti      16.61949266       0.00000000       3.32389853       22      -0.41445471       0.26301314      -0.20623758       1.10525825      -0.66654890       0.16158537 
Ti      18.28144192       1.66194927       4.98584780       22      -0.12750175      -0.34190407      -0.10387519      -0.25088274       1.18509133       0.25470102 
Ti       0.00000000       3.32389853       3.32389853       22       0.20817531      -0.22172555      -0.61439368      -0.62733186       0.27912333       1.19121188 
Ti       1.66194927       4.98584780       4.98584780       22       0.10792998       0.44541235      -0.24776446      -0.48801893      -1.00284239      -0.46537885 
Ti       3.32389853       3.32389853       3.32389853       22      -0.30664771      -0.36847672      -0.53316727       2.01710544      -0.14524122       2.13407680 
Ti       4.98584780       4.98584780       4.98584780       22      -0.00207538      -0.39887518      -0.59786553      -0.43420544       0.13000466       0.51134509 
Ti       6.64779706       3.32389853       3.32389853       22       0.23997643      -0.25264745       0.34105323       0.88470878      -0.20596199      -0.72836170 
Ti       8.30974633       4.98584780       4.98584780       22      -0.17047410       0.20526085       0.22322850       0.74200554      -0.38185280      -0.70430171 
Ti       9.97169559       3.32389853       3.32389853       22      -0.47143785      -0.48597345      -0.03652832       1.01660615       1.00181211       0.82169690 
Ti      11.63364486       4.98584780       4.98584780       22      -0.42437308       0.10967413       0.14457379       1.49527539      -0.84198505      -0.80728673 
Ti      13.29559413       3.32389853       3.32389853       22       0.08716270       0.06713408       0.07493161      -0.27538357      -0.26827421       0.31372279 
Ti      14.95754339       4.98584780       4.98584780       22       0.11990010       0.21840104      -0.14167169       0.48853073       0.45952340      -0.41425346 
Ti      16.61949266       3.32389853       3.32389853       22      -0.44961213      -0.07875721       0.19553097       0.76135249       0.26578617      -0.24230084 
Ti      18.28144192       4.98584780       4.98584780       22      -0.09719583      -0.23119813      -0.21144502      -0.81294484      -0.16485544      -0.01306016 
Ti       0.00000000       6.64779706       3.32389853       22      -0.58024491       0.15024055      -0.33545030       1.25812755      -0.67323640       1.63965050 
Ti       1.66194927       8.30974633       4.98584780       22      -0.06071564      -0.08461962      -0.06167901       1.05106888      -0.16325720      -0.42486547 
Ti       3.32389853       6.64779706       3.32389853       22       0.43117932       0.16335866       0.05198983       0.26418914      -0.22276236       0.28798277 
Ti       4.98584780       8.30974633       4.98584780       22      -0.28970102       0.20716431       0.42681135       0.56453470      -1.07258258      -0.88391417 
Ti       6.64779706       6.64779706       3.32389853       22      -0.11965664       0.00185599       0.00181663       0.12438112       0.78874849       0.89003112 
Ti       8.30974633       8.30974633       4.98584780       22      -0.61274084       0.01124291       0.31738155       0.37350324      -0.81901213       0.08083431 
Ti       9.97169559       6.64779706       3.32389853       22       0.28773221      -0.17035555      -0.15778683      -0.72624023       0.51912563       0.20379004 
Ti      11.63364486       8.30974633       4.98584780       22       0.43331327      -0.48498391      -0.04007899      -1.32893533       1.73031865       1.33746130 
Ti      13.29559413       6.64779706       3.32389853       22      -0.16540449       0.06538811      -0.21494734       0.87876239      -0.97479232      -1.30957390 
Ti      14.95754339       8.30974633       4.98584780       22       0.10731118      -0.27356485       0.01421713      -0.36977179       0.17333223       0.34911247 
Ti      16.61949266       6.64779706       3.32389853       22      -0.10609219      -0.03173382      -0.41710991      -0.24103780      -0.17821887       0.60019615 
Ti      18.28144192       8.30974633       4.98584780       22      -0.28118166       0.20143988       0.09579652       0.60346804      -0.23947237      -0.42739830 
Ti       0.00000000       9.97169559       3.32389853       22       0.26381446      -0.25490922      -0.29632720      -0.90793945       0.68067260       0.56697500 
Ti       1.66194927      11.63364486       4.98584780       22      -0.41265735       0.31647447      -0.00311057       0.74881363      -0.57456601      -1.05772434 
Ti       3.32389853       9.97169559       3.32389853       22       0.25550411      -0.18358442      -0.04480715      -1.31097107       0.22880319      -0.20523820 
Ti       4.98584780      11.63364486       4.98584780       22       0.29433961      -0.52189784       0.03961229      -1.19401236       1.72329161       0.11668017 
Ti       6.64779706       9.97169559       3.32389853       22      -0.13224797      -0.25921593      -0.12029093      -0.51452138       0.00959728      -0.10796576 
Ti       8.30974633      11.63364486       4.98584780       22      -0.44463376      -0.35964796      -0.12702479       1.83109987       0.51036781       0.75749891 
Ti       9.97169559       9.97169559       3.32389853       22      -0.64623105      -0.75485357       0.34140786       0.97935418       1.09065109      -0.03993170 
Ti      11.63364486      11.63364486       4.98584780       22       0.39573049      -0.35046351      -0.20786145      -0.69930963       0.13442562       0.94812997 
Ti      13.29559413       9.97169559       3.32389853       22       0.40435952      -0.35632646      -0.04632175      -0.30128078       0.20406501      -0.13026201 
Ti      14.95754339      11.63364486       4.98584780       22       0.01997141       0.16258843       0.07236348      -0.13689530       0.11955394      -0.59039641 
Ti      16.61949266       9.97169559       3.32389853       22      -0.18406712      -0.30234392       0.24253928       0.28240395       1.15782629      -1.34685759 
Ti      18.28144192      11.63364486       4.98584780       22      -0.09320460       0.13819108      -0.14982601       0.21977506      -0.50180893       0.32153136 
Ti       0.00000000      13.29559413       3.32389853       22      -0.38242307       0.24137417      -0.22339509       0.41196246      -0.04141579      -0.40262385 
Ti       1.66194927      14.95754339       4.98584780       22      -0.31619188      -0.12935063      -0.09730290       0.80395160       0.28512616       0.15724067 
Ti       3.32389853      13.29559413       3.32389853       22       0.30608522      -0.06682855       0.44502702      -0.27360169       0.31780025       0.28603389 
Ti       4.98584780      14.95754339       4.98584780       22       0.51555985       0.09270389       0.37620694      -1.88176161      -0.48923067      -0.64504864 
Ti       6.64779706      13.29559413       3.32389853       22      -0.09260413      -0.16459474      -0.06407067       0.29820451       0.28611032      -0.33257277 
Ti       8.30974633      14.95754339       4.98584780       22      -0.25469927      -0.60960436       0.47338929       0.70872649       0.79967149      -0.68840718 
Ti       9.97169559      13.29559413       3.32389853       22      -0.29517396       0.02411721      -0.05371723      -0.35461724      -0.23688741       0.52754765 
Ti      11.63364486      14.95754339       4.98584780       22      -0.06311527      -0.15839730      -0.26833367       0.34488310      -0.64656073       0.23411743 
Ti      13.29559413      13.29559413       3.32389853       22      -0.02919104      -0.13838486      -0.20392145      -0.71079432       0.11215572       0.84095829 
Ti      14.95754339      14.95754339       4.98584780       22      -0.35689687      -0.06701916      -0.24340639       1.19614420      -0.31304766       0.52576466 
Ti      16.61949266      13.29559413       3.32389853       22       0.18477545       0.04366373      -0.18022047       0.40182025       0.15264253       0.36071129 
Ti      18.28144192      14.95754339       4.98584780       22       0.14848952      -0.06542894      -0.00502883      -0.53891679       0.74050057       0.25492306 
Ti       0.00000000      16.61949266       3.32389853       22      -0.15758192       0.17734030       0.05587912      -0.24338695      -0.18509211      -0.16018148 
Ti       1.66194927      18.28144192       4.98584780       22       0.07697042       0.14887595      -0.30279164      -0.00938119      -0.27331437       0.74230295 
Ti       3.32389853      16.61949266       3.32389853       22       0.02729037      -0.04560126       0.13954659       0.42501673       0.01701680      -0.12211882 
Ti       4.98584780      18.28144192       4.98584780       22       0.50231362      -0.09382857      -0.43568381       0.11537184      -0.07933419       1.01270802 
Ti       6.64779706      16.61949266       3.32389853       22       0.50410310      -0.41208568       0.27979950       0.09514347       0.39451831      -0.04630792 
Ti       8.30974633      18.28144192       4.98584780       22      -0.00339370       0.15150099       0.32845897       0.39694145      -0.24439738      -0.06605852 
Ti       9.97169559      16.61949266       3.32389853       22      -0.02395721      -0.25837054       0.56823965      -0.52437353       0.84157028      -0.66137901 
Ti      11.63364486      18.28144192       4.98584780       22       0.52913280       0.19644251       0.04847378      -1.01414319       0.11189950      -0.58721581 
Ti      13.29559413      16.61949266       3.32389853       22      -0.13923184      -0.24888083      -0.19781057       0.53868533      -0.28285602      -0.29299219 
Ti      14.95754339      18.28144192       4.98584780       22       0.00801661       0.17578293      -0.02498162      -0.21983785       0.00657620       0.54521019 
Ti      16.61949266      16.61949266       3.32389853       22      -0.07329839       0.20757279       0.18497933      -0.06095238      -0.88110654      -0.37962787 
Ti      18.28144192      18.28144192       4.98584780       22      -0.25106305       0.10618502       0.02874096      -0.57761524       1.07761183      -0.34697942 
Ti       0.00000000       0.00000000       6.64779706       22       0.24562688       0.48709408       0.15332656      -0.30492261      -1.57420752      -1.01232879 
Ti       1.66194927       1.66194927       8.30974633       22       0.33463442       0.04190200       0.18312820      -0.25271389      -0.02490011      -0.24893310 
Ti       3.32389853       0.00000000       6.64779706       22       0.69462895       0.20481071       0.12455079      -1.73788793      -0.29818595      -0.59268177 
Ti       4.98584780       1.66194927       8.30974633       22       0.22682542       0.29828675       0.20800545      -0.89845922      -1.03043431       0.00150959 
Ti       6.64779706       0.00000000       6.64779706       22      -0.06397896       0.21276386       0.01780229       0.23545602      -0.68068929       0.80054857 
Ti       8.30974633       1.66194927       8.30974633       22      -0.18304766       0.25132033       0.23363394       0.49557808       0.16097929       0.36216106 
Ti       9.97169559       0.00000000       6.64779706       22       0.46243529      -0.25856868       0.27611664      -0.24649624       0.30339729      -0.15486102 
Ti      11.63364486       1.66194927       8.30974633       22       0.37501966       0.98885564       0.19841782      -0.80204049      -1.45097509       0.04163312 
Ti      13.29559413       0.00000000       6.64779706       22      -0.08667000       0.28668097       0.28764928      -0.09824784      -0.11352147       0.20529339 
Ti      14.95754339       1.66194927       8.30974633       22       0.09416619       0.61282580       0.05450238       0.21049265      -1.14448898       0.82134933 
Ti      16.61949266       0.00000000       6.64779706       22       0.25438090      -0.02230361       0.28599334      -0.20541325       0.26691798       0.52867086 
Ti      18.28144192       1.66194927       8.30974633       22       0.69840988       0.46020195       0.20920904      -1.02065236      -0.80466355      -1.62406424 
Ti       0.00000000       3.32389853       6.64779706       22       0.21079872      -0.20309399      -0.50127920       0.65916579      -0.11236043      -0.08495155 
Ti       1.66194927       4.98584780       8.30974633       22      -0.06365481      -0.25158261      -0.30042567       0.21646064       0.19455248      -0.24168723 
Ti       3.32389853       3.32389853       6.64779706       22       0.04929429      -0.31143003      -0.13054868       0.23844634       0.28236872      -0.37719725 
Ti       4.98584780       4.98584780       8.30974633       22      -0.15538086      -0.05239592       0.32105443       0.01807412      -0.51318202      -1.10845394 
Ti       6.64779706       3.32389853       6.64779706       22       0.12246671      -0.14955540       0.02358412      -0.85481741       0.60177994      -0.78631764 
Ti       8.30974633       4.98584780       8.30974633       22      -0.27660882       0.11735498       0.05576010       0.08668915      -0.12662994      -1.23950641 
Ti       9.97169559       3.32389853       6.64779706       22      -0.00793218       0.34878195       0.26638866      -0.53548173      -0.71333101       0.32495747 
Ti      11.63364486       4.98584780       8.30974633       22       0.11240557       0.33690396      -0.17107842       0.48922522      -0.10729304       0.78199179 
Ti      13.29559413       3.32389853       6.64779706       22       0.30268365      -0.12363757      -0.32372957      -1.05972090       1.60211891       0.30920993 
Ti      14.95754339       4.98584780       8.30974633       22      -0.26751238       0.27154599       0.06563578       0.32665263      -0.55233305       0.25684113 
Ti      16.61949266       3.32389853       6.64779706       22      -0.34393097       0.46046054       0.04533313       1.90330218      -1.11158161      -0.73504523 
Ti      18.28144192       4.98584780       8.30974633       22       0.33758381      -0.27157105      -0.12810769       0.06718511       0.82757542      -0.65349748 
Ti       0.00000000       6.64779706       6.64779706       22      -0.23220475       0.17458676      -0.57622454       0.12732270      -1.34699480       0.64052834 
Ti       1.66194927       8.30974633       8.30974633       22       0.10431523      -0.20938024      -0.49855231       0.10945166      -0.99268326      -0.72993558 
Ti       3.32389853       6.64779706       6.64779706       22       0.26403369      -0.34188927      -0.11110601      -1.28923035      -0.65566016      -0.24865222 
Ti       4.98584780       8.30974633       8.30974633       22      -0.22490164      -0.23141874      -0.12900939       0.41024074       0.25637289       0.62824263 
Ti       6.64779706       6.64779706       6.64779706       22      -0.55224195      -0.41209867      -0.15654960       0.86715938       0.26342534      -0.00271785 
Ti       8.30974633       8.30974633       8.30974633       22      -0.41368203      -0.31878305      -0.11655128       0.34520004       0.46041051       0.28029065 
Ti       9.97169559       6.64779706       6.64779706       22       0.00346089       0.15416318       0.16221439      -0.16845623       0.32668774      -0.32023868 
Ti      11.63364486       8.30974633       8.30974633       22       0.34571625      -0.19407100      -0.02890345      -0.52452827       0.49798239      -0.32914967 
Ti      13.29559413       6.64779706       6.64779706       22       0.35925576      -0.30258453      -0.21782863      -0.32297797      -0.03728535       0.41960786 
Ti      14.95754339       8.30974633       8.30974633       22      -0.09436298       0.13921590      -0.27463263       1.42414869      -1.85246459       0.38831982 
Ti      16.61949266       6.64779706       6.64779706       22       0.10976030      -0.13699695       0.15475138      -0.45926074      -0.36089887      -0.53665610 