192
Lattice="25.19038208 0.0 0.0 -12.59519104 21.81550832 0.0 0.0 0.0 27.14312451" Properties=species:S:1:pos:R:3:displacements:R:3:forces:R:3 pbc="T T T"
Mo      -0.77439895      20.90652808      13.57156225       0.01490137      -0.00414800       0.01943068      -0.55072753      -0.21820669       0.21191990 
Mo       3.94879769      18.17958954      13.57156225       0.04569082      -0.00702459      -0.00702410      -1.48384493      -0.06553102       0.36000352 
Mo       5.52319657      15.45265100      13.57156225       0.04737643       0.02302300      -0.01408430      -1.21021298      -1.62898007       1.01249896 
Mo       7.09759545      12.72571246      13.57156225       0.01627677      -0.01390259      -0.01397192      -0.52581324      -0.13707711       0.43948147 
Mo       8.67199433       9.99877392      13.57156225       0.00725886      -0.05739835      -0.05174755       0.75487401       1.58034426       1.47285378 
Mo      10.24639321       7.27183538      13.57156225      -0.01686861      -0.03038486       0.00942735       0.56869096       0.73158363      -0.58330354 
Mo      11.82079209       4.54489684      13.57156225      -0.02724063      -0.04236921       0.04396942       0.55483293       1.32493120      -0.75417173 
Mo      13.39519097       1.81795830      13.57156225      -0.00677319       0.00202579      -0.04274255       0.40114362      -0.37714113       0.82531134 
Mo       0.79999993      18.17958954      13.57156225      -0.01633143       0.00332774      -0.03452985       0.78307748       0.07164712       1.20063032 
Mo       2.37439881      15.45265100      13.57156225       0.01127093      -0.01801917      -0.00875094      -0.40122652       0.20809911      -0.05770232 
Mo       2.37439881      20.90652808      13.57156225      -0.01805105       0.05556824      -0.00040498       0.94262100      -2.71011360      -0.45513907 
Mo       3.94879769      12.72571246      13.57156225      -0.03173132       0.02467639      -0.03662530       1.61222335      -0.46409637       0.60901918 
Mo       7.09759545       7.27183538      13.57156225       0.00626586      -0.05879018      -0.03984556      -0.27158748       1.70649718       0.50580313 
Mo       8.67199433       4.54489684      13.57156225       0.00590589       0.02215409       0.00514118      -0.27811234      -0.45000697      -0.64338428 
Mo      10.24639321       1.81795830      13.57156225      -0.00346935      -0.00903315      -0.04435567       0.26970898       0.32088485       1.02640914 
Mo      -3.92319671      20.90652808      13.57156225      -0.02159521      -0.01381925       0.03171376       0.73308179       0.11161898      -0.95134994 
Mo      -2.34879783      18.17958954      13.57156225       0.01030866      -0.05289126       0.00972240      -0.47390793       0.97629767      -0.07542005 
Mo      -0.77439895      15.45265100      13.57156225      -0.01155256      -0.02030762       0.01835038       0.62256324       0.98362169      -0.13768448 
Mo       0.79999993      12.72571246      13.57156225       0.03092988       0.02793847      -0.02517661      -1.70675488      -0.43500747       0.86033966 
Mo       2.37439881       9.99877392      13.57156225      -0.00927636       0.00993784       0.02926626       0.85069741       0.44995357      -0.89148464 
Mo       3.94879769       7.27183538      13.57156225      -0.01437527      -0.00556972      -0.03319007       0.21550749      -0.06625309       1.02114019 
Mo       5.52319657       9.99877392      13.57156225      -0.03588622       0.02437578       0.04068727       1.02810884      -0.82682532      -1.09082708 
Mo       5.52319657       4.54489684      13.57156225      -0.00216045       0.03010606       0.01084911      -0.47850939      -0.71809009      -0.69458521 
Mo      16.54398873       1.81795830      13.57156225      -0.01935352       0.01084187       0.04614114       0.27061018      -0.44666671      -1.32468259 
Mo      13.39519097       7.27183538      13.57156225      -0.00107475       0.04693934      -0.07859237      -0.41562836      -1.86569334       2.27664845 
Mo      13.39519097      18.17958954      13.57156225       0.02465710       0.00261132      -0.00897026      -0.94156882      -0.37842216       0.09920697 
Mo      14.96958985      15.45265100      13.57156225       0.00275280      -0.05962702      -0.00659008       0.16566469       1.05453837       0.52039747 
Mo      16.54398873      12.72571246      13.57156225       0.01071334       0.04433675      -0.01554812       0.22836584      -1.11757931       0.85742983 
Mo      18.11838761       9.99877392      13.57156225      -0.02425481      -0.01505270       0.02746206       0.79126263       0.18992255      -0.61827922 
Mo      19.69278649       7.27183538      13.57156225       0.00986266      -0.01589282       0.01539802      -0.27306730       0.58132182      -0.12211242 
Mo      21.26718537       4.54489684      13.57156225       0.00291239       0.02905935      -0.02106171      -0.41068571      -1.02139796       1.17441396 
Mo      22.84158425       1.81795830      13.57156225      -0.00982992      -0.01176314      -0.04390536       0.37679741       0.48180405       1.54366130 
Mo       8.67199433      20.90652808      13.57156225       0.00888377       0.00783155       0.00015336      -0.57517735      -0.41720057       0.45749271 
Mo      10.24639321      18.17958954      13.57156225      -0.00703756      -0.04246105      -0.01261938       0.57775117       0.93773943      -0.54184782 
Mo      14.96958985       4.54489684      13.57156225      -0.01028133      -0.02406840      -0.00483853      -0.49752020       0.81935848      -0.29308037 
Mo      11.82079209      15.45265100      13.57156225       0.01212161       0.05658550       0.00523727       0.27705079      -1.49795602      -0.99867136 
Mo      14.96958985       9.99877392      13.57156225       0.00772665      -0.00223347      -0.05756324       0.06457286      -0.25964336       2.52781631 
Mo      16.54398873       7.27183538      13.57156225      -0.00079539       0.00180698       0.07389716       0.68034182      -0.08781001      -2.20345454 
Mo      18.11838761       4.54489684      13.57156225      -0.00577086       0.00904645      -0.00104148      -0.09422052      -0.19998237       0.89798600 
Mo      19.69278649       1.81795830      13.57156225      -0.03506035       0.03428460       0.02255811       1.06728727      -0.23274241       0.09191986 
Mo       5.52319657      20.90652808      13.57156225       0.02373085      -0.02728160       0.04208379      -0.68208315       0.11639427      -1.26922949 
Mo       7.09759545      18.17958954      13.57156225      -0.04205547       0.01760577       0.06571378       1.18642071      -0.40530842      -2.10903447 
Mo       8.67199433      15.45265100      13.57156225      -0.02971621      -0.01698883       0.00298954       0.95198829       0.21641693      -0.28772124 
Mo      10.24639321      12.72571246      13.57156225      -0.01510440      -0.04651983       0.00205691       0.57595795       1.07706431      -0.32217694 
Mo      11.82079209       9.99877392      13.57156225      -0.03186923       0.01420779      -0.02758284       0.84757154      -1.03425766       1.31493477 
Mo      13.39519097      12.72571246      13.57156225       0.04649804      -0.02349770      -0.00966187      -1.38037430       0.25092220       0.15431132 
Mo       7.09759545       1.81795830      13.57156225       0.02440558      -0.03692602       0.00682378      -0.33142214       1.34137326       0.71398817 
Mo      11.82079209      20.90652808      13.57156225       0.03921437      -0.04822449       0.00553910      -1.11677241       0.86342837       0.17781457 
Mo      -2.34879783       7.27183538      13.57156225       0.00779642       0.02345473      -0.03710845       0.59085651      -0.39614791       1.49984917 
Mo      -0.77439895       4.54489684      13.57156225      -0.03961364       0.01565830       0.00890946       1.07501849      -0.52163317       0.54909327 
Mo      -2.34879783      12.72571246      13.57156225       0.00751479       0.01039334      -0.02040077      -0.28086270      -1.00950194       0.46863329 
Mo      -7.07199447      15.45265100      13.57156225       0.00696766       0.00879209      -0.02143058      -0.40517301      -0.84776327       0.83410878 
Mo       3.94879769       1.81795830      13.57156225       0.05597328       0.01421499      -0.03573908      -0.94361687      -0.58464358       1.27585657 
Mo      -8.64639335      18.17958954      13.57156225       0.01969649      -0.02924042       0.02361262      -0.59829470       0.43397373      -0.15522788 
Mo      -5.49759559      12.72571246      13.57156225       0.03475794      -0.02462055       0.02890118      -1.34101091       0.43466878      -0.20253289 
Mo      -5.49759559      18.17958954      13.57156225       0.01238347       0.02466178       0.05690366      -0.90646385      -0.50816226      -2.25966438 
Mo      -3.92319671       9.99877392      13.57156225      -0.00736176      -0.02261199      -0.02668549       0.50432518       0.59451654       1.09286092 
Mo       0.79999993       1.81795830      13.57156225      -0.02447435      -0.00231310       0.01023459       0.20615941       0.34898358      -0.45498523 
Mo     -10.22079223      20.90652808      13.57156225       0.00830073       0.02481558       0.00039005       0.26194592      -1.12994316      -0.39166770 
Mo      -7.07199447      20.90652808      13.57156225       0.04360594      -0.00793975       0.08160499      -0.56115794       0.61277974      -2.56097848 
Mo       2.37439881       4.54489684      13.57156225       0.01877011      -0.02571481      -0.03212687      -0.79678141       0.78667105       1.02707666 
Mo       0.79999993       7.27183538      13.57156225       0.01447414      -0.00670391       0.02142000      -0.14088244       0.42572400       0.03493495 
Mo      -0.77439895       9.99877392      13.57156225       0.01419717      -0.00218482      -0.02540379      -0.28805605       0.28517990       0.82270565 
Mo      -3.92319671      15.45265100      13.57156225      -0.04544534      -0.01339538       0.02569205       0.76351956      -0.55453829      -0.69787328 
S      -5.49759924      14.54367185      12.00072015       0.00642279      -0.03737215       0.00519547      -0.05144214       0.12057593       0.01490334 
S       7.09759180      19.99754893      12.00072015       0.01155949      -0.02651566       0.00461189      -0.09967537       0.25939420       0.33298679 
S       8.67199068       0.90897915      15.14240436       0.00174620      -0.03428918       0.01073375       0.33571787       0.40571759       0.00922117 
S      21.26718172       0.90897915      12.00072015       0.01682340       0.03249158       0.03161414      -0.85151777      -0.34452716      -0.54507486 
S      -5.49759924      14.54367185      15.14240436      -0.04132999      -0.02813481       0.01545095       0.17415863       0.18265098       0.06371307 
S      19.69278284       3.63591769      15.14240436       0.01541349       0.01545149       0.11558194      -0.22781221       0.15358424      -1.53932126 
S      18.11838396       6.36285623      15.14240436       0.01712681       0.03406688       0.02861998      -0.06006861      -0.59769441      -0.03984289 
S      21.26718172       0.90897915      15.14240436       0.01954182      -0.00945811       0.02276901      -0.27696629       0.23596793      -0.48447867 
S      19.69278284       3.63591769      12.00072015      -0.02318460      -0.00710466      -0.01456093       0.10317826       0.30170460       0.37873712 
S       8.67199068      17.27061039      15.14240436       0.00245619       0.06943985      -0.05601798      -0.14889960      -1.14026754       1.08778449 
S       8.67199068      17.27061039      12.00072015       0.02058785      -0.04838156      -0.01415785      -0.74400363       0.39829915       0.31862712 
S      18.11838396       6.36285623      12.00072015       0.03266840       0.00192849      -0.03233235      -0.45598569       0.01037687       0.80800014 
S      -7.07199812      17.27061039      15.14240436      -0.02145918       0.02038790      -0.02191102       0.37760927      -0.51312155       0.91607067 
S      10.24638956      14.54367185      12.00072015       0.00649370       0.00136718      -0.01954794      -0.11792435      -0.13216880       0.56125593 
S      10.24638956      14.54367185      15.14240436       0.06431822       0.01901767      -0.06075418      -0.79682108      -0.34988430       0.61320013 
S      -7.07199812      17.27061039      12.00072015       0.00559365      -0.01985364       0.02557289       0.25807375       0.46883994      -0.23618910 
S      11.82078844      11.81673331      12.00072015      -0.02377569      -0.00344205       0.01514966       0.32994889       0.12683558      -0.49968741 
S      11.82078844      11.81673331      15.14240436       0.02597267      -0.03600890      -0.01003508      -0.15058482       0.34283385       0.00311408 
S      13.39518732       9.08979477      12.00072015      -0.01424844      -0.01959993       0.05296356      -0.15288836       1.06302784      -1.84341636 
S      13.39518732       9.08979477      15.14240436       0.01214945      -0.03782656       0.02753589      -0.15170050       0.60785330      -0.92887980 
S      -8.64639700      19.99754893      15.14240436       0.06366479       0.03097388      -0.04558118      -1.07107270      -0.48415925       1.10369464 
S      14.96958620       6.36285623      12.00072015      -0.01452704       0.03800741      -0.02122999       0.50450551      -0.48316377       0.24347714 
S      14.96958620       6.36285623      15.14240436       0.01331450       0.02323897      -0.02780786      -0.78916378      -0.38818568       0.25366706 
S      -8.64639700      19.99754893      12.00072015      -0.00178562      -0.09723805      -0.03073172       0.31347063       1.00246461       0.83380349 
S       7.09759180      19.99754893      15.14240436      -0.00757714      -0.03743345       0.04897244       0.26258438       0.71299524       0.03066059 
S      -3.92320036      11.81673331      12.00072015      -0.04290426      -0.01320144       0.00392218       0.56694362       0.01900110      -0.23658150 
S      14.96958620      11.81673331      12.00072015       0.04323816      -0.04307581       0.03489493      -0.11190171       0.69852081      -1.17787096 
S      16.54398508       9.08979477      12.00072015       0.00030707      -0.02944526       0.01386308       0.25700082      -0.07215183      -0.19343249 
S      13.39518732      19.99754893      15.14240436       0.00597188      -0.01800652       0.00209409       0.37641214       0.13601321       0.15922505 
S       2.37439516       0.90897915      12.00072015      -0.01155949       0.00340562       0.01986388       0.22662063       0.13445108      -0.38666538 
S      14.96958620      17.27061039      12.00072015       0.04758035      -0.03713436       0.06399100      -0.33929547      -0.02181701      -0.74248591 
S      14.96958620      17.27061039      15.14240436      -0.05856273      -0.00455355       0.01764955       0.69851121      -0.36316910      -0.15162472 
S      16.54398508      14.54367185      12.00072015       0.00842971      -0.01868106      -0.00624373       0.03731429       0.39434086      -0.42010970 
S      16.54398508      14.54367185      15.14240436      -0.01479003      -0.01768103       0.02548794       0.30796030       0.39265220      -0.29083302 
S       0.79999628       3.63591769      15.14240436       0.01071057      -0.02078734       0.02698787      -0.22877752       0.31666250      -0.61960251 
S      18.11838396      11.81673331      12.00072015       0.00921892       0.02438581       0.01888890       0.10007632      -0.40753863       0.04035894 
S      18.11838396      11.81673331      15.14240436      -0.02486996      -0.01680536       0.02241886       0.20153375       0.21079570      -0.28467761 
S       0.79999628       3.63591769      12.00072015       0.01831114      -0.00062698       0.00351992      -0.60505281      -0.01736488       0.02017586 
S      19.69278284       9.08979477      12.00072015       0.03833006      -0.01774713       0.01641290      -0.79293375      -0.04544496      -0.18197037 
S      19.69278284       9.08979477      15.14240436      -0.00606572      -0.00653047       0.03296342       0.11353554       0.02963824      -0.42284724 
S      21.26718172       6.36285623      12.00072015       0.02476252       0.02440523       0.03916427      -0.29269244      -0.12295680      -0.98787326 
S      21.26718172       6.36285623      15.14240436       0.00063001       0.02045858      -0.00930792       0.37157818      -0.13414259       0.03552790 
S      16.54398508       9.08979477      15.14240436       0.00972512      -0.00390432       0.00291001      -0.50605983       0.30802389       0.32945802 
S      -0.77440260       6.36285623      15.14240436       0.01785482      -0.02454659       0.06277173      -0.30311182       0.39336583      -0.86155245 
S      22.84158060       3.63591769      15.14240436      -0.03018047      -0.03642557       0.03474320       0.08066678       0.31871928      -0.82804196 
S      -0.77440260       6.36285623      12.00072015       0.02374987       0.01872360       0.01885036      -0.04754885      -0.13824787      -0.25253404 
S      24.41597948       0.90897915      12.00072015      -0.00036728      -0.02691772       0.00227405       0.11286388      -0.14601587      -0.14691895 
S      24.41597948       0.90897915      15.14240436      -0.02031491       0.02925351      -0.00441184       0.02295262      -0.62960156      -0.12338779 
S      10.24638956      19.99754893      12.00072015      -0.02476492      -0.00964158       0.01238785       0.40947213      -0.14489441      -0.03063170 
S      10.24638956      19.99754893      15.14240436      -0.01691169      -0.02466658       0.00731073       0.33467004      -0.01519137      -0.30680617 
S      -2.34880148       9.08979477      15.14240436       0.00734892      -0.01520825      -0.01413125      -0.00540289       0.19110763      -0.13859091 
S      11.82078844      17.27061039      12.00072015       0.00696161      -0.04344253      -0.04222384       0.16147747       0.72845262       0.21789241 
S      11.82078844      17.27061039      15.14240436      -0.02155327      -0.00640351       0.00932719       0.32709597       0.43085689      -0.02490681 
S      -2.34880148       9.08979477      12.00072015       0.04426063       0.02572986      -0.00479809      -0.47381709      -0.17143692      -0.49129991 
S      13.39518732      14.54367185      12.00072015      -0.00057044      -0.03007595      -0.00055535      -0.03478609       0.14323576      -0.11506169 
S      13.39518732      14.54367185      15.14240436      -0.00865982       0.00968150      -0.02481696       0.01624712      -0.33854045       0.28027384 
S      14.96958620      11.81673331      15.14240436       0.01558038       0.04598207      -0.00326287       0.19206860      -0.67998223      -0.13633130 
S      -3.92320036      11.81673331      15.14240436       0.01205133       0.02070423      -0.01203662       0.30705584      -0.60722705       0.21052364 
S      22.84158060       3.63591769      12.00072015       0.00672281       0.00037784       0.00293037      -0.15360448       0.18482061      -0.31651219 
S      16.54398508       3.63591769      12.00072015      -0.02319039       0.00073540       0.01493985       0.23428305      -0.05124851       0.01820008 
S       5.52319292       0.90897915      15.14240436       0.04353427       0.02877815       0.06459548      -0.24350791      -0.12338145      -0.40238581 
S      18.11838396       0.90897915      12.00072015      -0.02302036       0.02616967       0.00550028       0.13639811      -0.38169336       0.44423428 
S       7.09759180       9.08979477      15.14240436       0.06569412      -0.02424903      -0.02519153      -0.75578191      -0.18120073      -0.14828612 
S      -0.77440260      11.81673331      15.14240436      -0.01798178      -0.06371677      -0.01577260       0.41065338       0.82757253      -0.17504810 
S       8.67199068       6.36285623      12.00072015      -0.02277412       0.00451188       0.01025277       0.42585765      -0.36777174      -0.73405388 
S       8.67199068       6.36285623      15.14240436       0.05628526       0.02851265      -0.01730700      -0.96294324      -0.48116148       0.55852830 
S      -0.77440260      11.81673331      12.00072015      -0.02695232       0.01475754      -0.03960698       0.46351699      -0.00887550       0.29251846 
S      10.24638956       3.63591769      12.00072015       0.05494362       0.03538323      -0.01407534      -0.78790717      -0.43384693       0.09479461 
S      10.24638956       3.63591769      15.14240436      -0.05139392       0.04061611      -0.00343632       0.20409053      -0.87173350       0.27888872 
S      11.82078844       0.90897915      12.00072015       0.03713453      -0.04783290      -0.01798123      -0.46457493       0.23376702      -0.04151217 
S      11.82078844       0.90897915      15.14240436       0.00015731       0.00140950      -0.01350208      -0.01199544       0.17152031      -0.12159949 
S      -2.34880148      14.54367185      15.14240436       0.01868547      -0.03202866      -0.00427151      -0.43649238       0.23733913       0.28357850 
S      -2.34880148      19.99754893      12.00072015       0.00360877       0.01543316       0.02134834      -0.14040664      -0.39627209       0.29659401 
S      -2.34880148      19.99754893      15.14240436      -0.03373912      -0.04602352       0.03833043       0.42750675       0.14164783      -0.44879511 
S      -2.34880148      14.54367185      12.00072015       0.00996960      -0.02245470       0.04653444      -0.43779443       0.58777121      -0.66878437 
S      -0.77440260      17.27061039      12.00072015       0.00347035       0.03537886       0.00202542      -0.23498174      -0.78407075      -0.18928490 
S       7.09759180       9.08979477      12.00072015       0.06182236       0.05266024      -0.00746897      -1.39764399      -0.87484080      -0.16107182 
S      -0.77440260      17.27061039      15.14240436       0.02914704       0.01936126       0.04105886      -0.19527408      -0.34067318      -0.51984300 
S       0.79999628      14.54367185      15.14240436      -0.02894778       0.02058162       0.03175284       0.44267257      -0.25936446      -0.45839482 
S      -3.92320036      17.27061039      15.14240436      -0.05276226      -0.03549776      -0.06117707       0.82650218       0.12434812       1.59553504 
S       2.37439516      11.81673331      12.00072015      -0.00808208       0.02152623       0.04507062       0.03171913      -0.40722442      -1.14692904 
S       2.37439516      11.81673331      15.14240436       0.00222280       0.04885845      -0.04140304      -0.05115167      -0.22408238       0.72788406 
S      -3.92320036      17.27061039      12.00072015      -0.05110134      -0.00166649       0.01152198       0.41439701      -0.10349730       0.11337941 
S       3.94879404       9.08979477      12.00072015      -0.00098091      -0.06202324      -0.00267360      -0.04771173       1.06720665       0.08385226 
S       3.94879404       9.08979477      15.14240436      -0.03913414       0.02009012       0.01099785       0.40580628      -0.39965109       0.07474793 
S       5.52319292       6.36285623      12.00072015      -0.02819648      -0.01541593      -0.03177646       0.19884865       0.02952792      -0.05069224 
S       5.52319292       6.36285623      15.14240436      -0.00188046       0.02865423      -0.02957189      -0.04654548      -0.07096096       0.28891390 
S      -5.49759924      19.99754893      15.14240436       0.01512141      -0.01590765      -0.02378606       0.17626216       0.21534095       1.74439591 
S       7.09759180       3.63591769      12.00072015      -0.00321089      -0.03105721      -0.01660942       0.07895019       0.27284648       0.51402998 
S       7.09759180       3.63591769      15.14240436      -0.03593647       0.05894179       0.00105804       0.50869032      -0.58126739      -0.10903777 
S      -5.49759924      19.99754893      12.00072015      -0.02099190       0.00641943      -0.00336982       0.20026631      -0.04364982       0.42885994 
S       8.67199068       0.90897915      12.00072015      -0.00662910       0.01842494       0.02272531       0.09095028      -0.62182575      -0.53199173 
S       0.79999628      14.54367185      12.00072015      -0.01591491      -0.01727461      -0.00825151       0.15303909       0.46500170      -0.04156593 
S      16.54398508       3.63591769      15.14240436      -0.06905767      -0.04545567       0.04100620       0.58869412       0.72801103      -0.19251914 
S       5.52319292      11.81673331      15.14240436       0.04934909      -0.00747116       0.01729668      -0.70667605       0.42147420      -0.29089585 
S       0.79999628       9.08979477      12.00072015       0.00933757       0.09236643       0.03358717       0.22449084      -1.16367793      -0.64397344 
S      18.11838396       0.90897915      15.14240436      -0.00383763      -0.02866623      -0.04819343       0.02327494       0.26942336       1.11116041 
S       3.94879404      19.99754893      12.00072015       0.00610401      -0.02269053      -0.04266763       0.10191297       0.36557984       0.93322102 
S       3.94879404      19.99754893      15.14240436      -0.01939722      -0.03244642       0.05061433       0.15618548       0.28129031      -0.78536554 
S       5.52319292       0.90897915      12.00072015       0.02644915      -0.00023910       0.04439828       0.18441109      -0.58814064      -0.51799292 
S       5.52319292      17.27061039      12.00072015       0.00232092      -0.02583851       0.04569382       0.37651859       0.50749943      -0.91614327 
S       5.52319292      17.27061039      15.14240436       0.01616731      -0.03111742      -0.00571010      -0.36313550       0.09450321       0.79896548 
S       7.09759180      14.54367185      12.00072015      -0.02626853      -0.04148393       0.02778533       0.52019621       0.37765805      -0.69069055 
S       7.09759180      14.54367185      15.14240436       0.05728255      -0.04195711       0.01688899      -0.51798559       0.27364096      -0.01093914 
S       3.94879404       3.63591769      15.14240436      -0.01951927      -0.01461377      -0.01777169       0.38455769       0.15343033       0.12628267 
S       8.67199068      11.81673331      12.00072015      -0.02591977       0.00145575      -0.02492852       0.34282699      -0.33030934       0.02375340 
S       8.67199068      11.81673331      15.14240436       0.00811370      -0.00150723      -0.00716850      -0.04846900      -0.65906892      -0.10559364 
S       3.94879404       3.63591769      12.00072015      -0.02722677      -0.01730319       0.02266179       0.77160729       0.31908918      -0.88353636 
S      10.24638956       9.08979477      12.00072015       0.01502757      -0.02932659       0.00298004      -0.08531274      -0.18135248      -0.56266166 
S      10.24638956       9.08979477      15.14240436       0.02254149      -0.05008208       0.01630080      -0.28439253       0.45326432      -0.43748885 
S       5.52319292      11.81673331      12.00072015      -0.01987861       0.01711797      -0.02289767       0.04059504      -0.31769614       0.37887016 
S      11.82078844       6.36285623      12.00072015      -0.05414635      -0.04882638       0.00144266       0.42668432       0.10071260       0.06726260 
S       2.37439516       6.36285623      15.14240436       0.00779176      -0.02712955       0.01915789       0.09832924      -0.03307357      -0.48799483 
S      13.39518732       3.63591769      12.00072015      -0.04984559      -0.00198238      -0.03633053       0.32366188       0.07002025       0.41815249 
S      13.39518732       3.63591769      15.14240436      -0.01955504       0.00142193      -0.02581230       0.22330670      -0.40639087       0.44545709 
S       2.37439516       6.36285623      12.00072015      -0.01153669       0.03018874      -0.01730673      -0.10847538      -0.45723259       0.04233957 
S      14.96958620       0.90897915      12.00072015       0.02507073      -0.03389126       0.01589420      -0.11825088       0.83443209      -0.54669247 
S      14.96958620       0.90897915      15.14240436       0.04324697      -0.07414939      -0.02390685      -0.90751999       1.27679669       0.92475941 
S      13.39518732      19.99754893      12.00072015       0.01731209      -0.00609133       0.01113438       0.17945470      -0.00569073      -0.33806980 
S       0.79999628      19.99754893      12.00072015      -0.01811969       0.00259779      -0.00467025       0.15540127       0.18981992      -0.01582786 
S       0.79999628      19.99754893      15.14240436       0.03503340       0.00763259       0.01012819      -0.34422757      -0.13726546      -0.21674495 
S       2.37439516      17.27061039      12.00072015      -0.01235639      -0.01462817      -0.01297686       0.34046369       0.08771919       0.23035110 
S       2.37439516      17.27061039      15.14240436       0.01183343      -0.01262943       0.00869313      -0.02042960       0.07237875      -0.65809745 
S       0.79999628       9.08979477      15.14240436       0.06226206       0.02613367      -0.00978075      -0.93141682      -0.36222997       0.44542495 
S       3.94879404      14.54367185      12.00072015       0.03603648      -0.01224221      -0.06114369      -0.22644594       0.46350872       0.55944315 
S       3.94879404      14.54367185      15.14240436      -0.03024269      -0.05612367      -0.01054538       0.55563711       0.76733011      -0.13255050 