14.400
2.419776 0 0 0 2.419776 0 0 0 2.419776
1.09328 0 0 0 1.09328 0 0 0 1.09328
-1.09328 0 0 0 -1.09328 0 0 0 -1.09328
