512
Lattice="22.7612059 0.0 0.0 0.0 22.7612059 0.0 0.0 0.0 22.7612059" Properties=species:S:1:pos:R:3:forces:R:3 energy=-1744.42800271 stress="0.0030149130671923486 -0.0 -0.0 -0.0 0.003014986860554744 -0.0 -0.0 -0.0 0.003014986860554744" free_energy=-1744.42800271 pbc="T T T"
Na       0.00999991       0.00000000       0.00000000      -0.01752451       0.00000000      -0.00000000
Na       5.69030148       0.00000000       0.00000000       0.00150238       0.00000000      -0.00000000
Na      11.38060295       0.00000000       0.00000000       0.00023985       0.00000000      -0.00000000
Na      17.07090443       0.00000000       0.00000000       0.00150143       0.00000000      -0.00000000
Na       0.00000000       5.69030148       0.00000000      -0.00012058      -0.00000121      -0.00000000
Na       5.69030148       5.69030148       0.00000000       0.00002054       0.00023014      -0.00000000
Na      11.38060295       5.69030148       0.00000000       0.00012253       0.00000035      -0.00000000
Na      17.07090443       5.69030148       0.00000000       0.00002063      -0.00022723      -0.00000000
Na       0.00000000      11.38060295       0.00000000      -0.00004557       0.00000000      -0.00000000
Na       5.69030148      11.38060295       0.00000000      -0.00000586       0.00000000      -0.00000000
Na      11.38060295      11.38060295       0.00000000       0.00005125       0.00000000      -0.00000000
Na      17.07090443      11.38060295       0.00000000       0.00000115       0.00000000      -0.00000000
Na       0.00000000      17.07090443       0.00000000      -0.00012058       0.00000121      -0.00000000
Na       5.69030148      17.07090443       0.00000000       0.00002054      -0.00023014      -0.00000000
Na      11.38060295      17.07090443       0.00000000       0.00012253      -0.00000035      -0.00000000
Na      17.07090443      17.07090443       0.00000000       0.00002063       0.00022723      -0.00000000
Na       0.00000000       0.00000000       5.69030148      -0.00012058       0.00000000      -0.00000121
Na       5.69030148       0.00000000       5.69030148       0.00002054       0.00000000       0.00023014
Na      11.38060295       0.00000000       5.69030148       0.00012253       0.00000000       0.00000035
Na      17.07090443       0.00000000       5.69030148       0.00002063       0.00000000      -0.00022723
Na       0.00000000       5.69030148       5.69030148      -0.00010472       0.00000151       0.00000151
Na       5.69030148       5.69030148       5.69030148       0.00001591       0.00005802       0.00005802
Na      11.38060295       5.69030148       5.69030148       0.00006870      -0.00000158      -0.00000158
Na      17.07090443       5.69030148       5.69030148       0.00002070      -0.00005711      -0.00005711
Na       0.00000000      11.38060295       5.69030148      -0.00003501       0.00000000       0.00000319
Na       5.69030148      11.38060295       5.69030148      -0.00000046       0.00000000       0.00000961
Na      11.38060295      11.38060295       5.69030148       0.00003735       0.00000000       0.00000154
Na      17.07090443      11.38060295       5.69030148      -0.00000039       0.00000000      -0.00000825
Na       0.00000000      17.07090443       5.69030148      -0.00010472      -0.00000151       0.00000151
Na       5.69030148      17.07090443       5.69030148       0.00001591      -0.00005802       0.00005802
Na      11.38060295      17.07090443       5.69030148       0.00006870       0.00000158      -0.00000158
Na      17.07090443      17.07090443       5.69030148       0.00002070       0.00005711      -0.00005711
Na       0.00000000       0.00000000      11.38060295      -0.00004557       0.00000000      -0.00000000
Na       5.69030148       0.00000000      11.38060295      -0.00000586       0.00000000      -0.00000000
Na      11.38060295       0.00000000      11.38060295       0.00005125       0.00000000      -0.00000000
Na      17.07090443       0.00000000      11.38060295       0.00000115       0.00000000      -0.00000000
Na       0.00000000       5.69030148      11.38060295      -0.00003501       0.00000319      -0.00000000
Na       5.69030148       5.69030148      11.38060295      -0.00000046       0.00000961      -0.00000000
Na      11.38060295       5.69030148      11.38060295       0.00003735       0.00000154      -0.00000000
Na      17.07090443       5.69030148      11.38060295      -0.00000039      -0.00000825      -0.00000000
Na       0.00000000      11.38060295      11.38060295      -0.00002237       0.00000000      -0.00000000
Na       5.69030148      11.38060295      11.38060295      -0.00001246       0.00000000      -0.00000000
Na      11.38060295      11.38060295      11.38060295       0.00003214       0.00000000      -0.00000000
Na      17.07090443      11.38060295      11.38060295      -0.00000698       0.00000000      -0.00000000
Na       0.00000000      17.07090443      11.38060295      -0.00003501      -0.00000319      -0.00000000
Na       5.69030148      17.07090443      11.38060295      -0.00000046      -0.00000961      -0.00000000
Na      11.38060295      17.07090443      11.38060295       0.00003735      -0.00000154      -0.00000000
Na      17.07090443      17.07090443      11.38060295      -0.00000039       0.00000825      -0.00000000
Na       0.00000000       0.00000000      17.07090443      -0.00012058       0.00000000       0.00000121
Na       5.69030148       0.00000000      17.07090443       0.00002054       0.00000000      -0.00023014
Na      11.38060295       0.00000000      17.07090443       0.00012253       0.00000000      -0.00000035
Na      17.07090443       0.00000000      17.07090443       0.00002063       0.00000000       0.00022723
Na       0.00000000       5.69030148      17.07090443      -0.00010472       0.00000151      -0.00000151
Na       5.69030148       5.69030148      17.07090443       0.00001591       0.00005802      -0.00005802
Na      11.38060295       5.69030148      17.07090443       0.00006870      -0.00000158       0.00000158
Na      17.07090443       5.69030148      17.07090443       0.00002070      -0.00005711       0.00005711
Na       0.00000000      11.38060295      17.07090443      -0.00003501       0.00000000      -0.00000319
Na       5.69030148      11.38060295      17.07090443      -0.00000046       0.00000000      -0.00000961
Na      11.38060295      11.38060295      17.07090443       0.00003735       0.00000000      -0.00000154
Na      17.07090443      11.38060295      17.07090443      -0.00000039       0.00000000       0.00000825
Na       0.00000000      17.07090443      17.07090443      -0.00010472      -0.00000151      -0.00000151
Na       5.69030148      17.07090443      17.07090443       0.00001591      -0.00005802      -0.00005802
Na      11.38060295      17.07090443      17.07090443       0.00006870       0.00000158       0.00000158
Na      17.07090443      17.07090443      17.07090443       0.00002070       0.00005711       0.00005711
Na       0.00000000       2.84515074       2.84515074      -0.00070167      -0.00000449      -0.00000449
Na       5.69030148       2.84515074       2.84515074       0.00018982       0.00020808       0.00020808
Na      11.38060295       2.84515074       2.84515074       0.00016177      -0.00000240      -0.00000240
Na      17.07090443       2.84515074       2.84515074       0.00018966      -0.00021047      -0.00021047
Na       0.00000000       8.53545221       2.84515074      -0.00006269       0.00000274      -0.00000411
Na       5.69030148       8.53545221       2.84515074       0.00000132       0.00006019       0.00001058
Na      11.38060295       8.53545221       2.84515074       0.00005690       0.00000290      -0.00000526
Na      17.07090443       8.53545221       2.84515074       0.00000479      -0.00005584      -0.00001899
Na       0.00000000      14.22575369       2.84515074      -0.00006269      -0.00000274      -0.00000411
Na       5.69030148      14.22575369       2.84515074       0.00000132      -0.00006019       0.00001058
Na      11.38060295      14.22575369       2.84515074       0.00005690      -0.00000290      -0.00000526
Na      17.07090443      14.22575369       2.84515074       0.00000479       0.00005584      -0.00001899
Na       0.00000000      19.91605516       2.84515074      -0.00070167       0.00000449      -0.00000449
Na       5.69030148      19.91605516       2.84515074       0.00018982      -0.00020808       0.00020808
Na      11.38060295      19.91605516       2.84515074       0.00016177       0.00000240      -0.00000240
Na      17.07090443      19.91605516       2.84515074       0.00018966       0.00021047      -0.00021047
Na       0.00000000       2.84515074       8.53545221      -0.00006269      -0.00000411       0.00000274
Na       5.69030148       2.84515074       8.53545221       0.00000132       0.00001058       0.00006019
Na      11.38060295       2.84515074       8.53545221       0.00005690      -0.00000526       0.00000290
Na      17.07090443       2.84515074       8.53545221       0.00000479      -0.00001899      -0.00005584
Na       0.00000000       8.53545221       8.53545221      -0.00003443       0.00000157       0.00000157
Na       5.69030148       8.53545221       8.53545221      -0.00000008       0.00001389       0.00001389
Na      11.38060295       8.53545221       8.53545221       0.00003463       0.00000240       0.00000240
Na      17.07090443       8.53545221       8.53545221       0.00000220      -0.00001190      -0.00001190
Na       0.00000000      14.22575369       8.53545221      -0.00003443      -0.00000157       0.00000157
Na       5.69030148      14.22575369       8.53545221      -0.00000008      -0.00001389       0.00001389
Na      11.38060295      14.22575369       8.53545221       0.00003463      -0.00000240       0.00000240
Na      17.07090443      14.22575369       8.53545221       0.00000220       0.00001190      -0.00001190
Na       0.00000000      19.91605516       8.53545221      -0.00006269       0.00000411       0.00000274
Na       5.69030148      19.91605516       8.53545221       0.00000132      -0.00001058       0.00006019
Na      11.38060295      19.91605516       8.53545221       0.00005690       0.00000526       0.00000290
Na      17.07090443      19.91605516       8.53545221       0.00000479       0.00001899      -0.00005584
Na       0.00000000       2.84515074      14.22575369      -0.00006269      -0.00000411      -0.00000274
Na       5.69030148       2.84515074      14.22575369       0.00000132       0.00001058      -0.00006019
Na      11.38060295       2.84515074      14.22575369       0.00005690      -0.00000526      -0.00000290
Na      17.07090443       2.84515074      14.22575369       0.00000479      -0.00001899       0.00005584
Na       0.00000000       8.53545221      14.22575369      -0.00003443       0.00000157      -0.00000157
Na       5.69030148       8.53545221      14.22575369      -0.00000008       0.00001389      -0.00001389
Na      11.38060295       8.53545221      14.22575369       0.00003463       0.00000240      -0.00000240
Na      17.07090443       8.53545221      14.22575369       0.00000220      -0.00001190       0.00001190
Na       0.00000000      14.22575369      14.22575369      -0.00003443      -0.00000157      -0.00000157
Na       5.69030148      14.22575369      14.22575369      -0.00000008      -0.00001389      -0.00001389
Na      11.38060295      14.22575369      14.22575369       0.00003463      -0.00000240      -0.00000240
Na      17.07090443      14.22575369      14.22575369       0.00000220       0.00001190       0.00001190
Na       0.00000000      19.91605516      14.22575369      -0.00006269       0.00000411      -0.00000274
Na       5.69030148      19.91605516      14.22575369       0.00000132      -0.00001058      -0.00006019
Na      11.38060295      19.91605516      14.22575369       0.00005690       0.00000526      -0.00000290
Na      17.07090443      19.91605516      14.22575369       0.00000479       0.00001899       0.00005584
Na       0.00000000       2.84515074      19.91605516      -0.00070167      -0.00000449       0.00000449
Na       5.69030148       2.84515074      19.91605516       0.00018982       0.00020808      -0.00020808
Na      11.38060295       2.84515074      19.91605516       0.00016177      -0.00000240       0.00000240
Na      17.07090443       2.84515074      19.91605516       0.00018966      -0.00021047       0.00021047
Na       0.00000000       8.53545221      19.91605516      -0.00006269       0.00000274       0.00000411
Na       5.69030148       8.53545221      19.91605516       0.00000132       0.00006019      -0.00001058
Na      11.38060295       8.53545221      19.91605516       0.00005690       0.00000290       0.00000526
Na      17.07090443       8.53545221      19.91605516       0.00000479      -0.00005584       0.00001899
Na       0.00000000      14.22575369      19.91605516      -0.00006269      -0.00000274       0.00000411
Na       5.69030148      14.22575369      19.91605516       0.00000132      -0.00006019      -0.00001058
Na      11.38060295      14.22575369      19.91605516       0.00005690      -0.00000290       0.00000526
Na      17.07090443      14.22575369      19.91605516       0.00000479       0.00005584       0.00001899
Na       0.00000000      19.91605516      19.91605516      -0.00070167       0.00000449       0.00000449
Na       5.69030148      19.91605516      19.91605516       0.00018982      -0.00020808      -0.00020808
Na      11.38060295      19.91605516      19.91605516       0.00016177       0.00000240       0.00000240
Na      17.07090443      19.91605516      19.91605516       0.00018966       0.00021047       0.00021047
Na       2.84515074       0.00000000       2.84515074       0.00020311       0.00000000       0.00202890
Na       8.53545221       0.00000000       2.84515074       0.00027864       0.00000000       0.00005836
Na      14.22575369       0.00000000       2.84515074       0.00026878       0.00000000      -0.00006113
Na      19.91605516       0.00000000       2.84515074       0.00021123       0.00000000      -0.00201921
Na       2.84515074       5.69030148       2.84515074      -0.00009538       0.00021167       0.00002427
Na       8.53545221       5.69030148       2.84515074       0.00009230       0.00005515       0.00002544
Na      14.22575369       5.69030148       2.84515074       0.00008413      -0.00005656      -0.00003438
Na      19.91605516       5.69030148       2.84515074      -0.00008763      -0.00020947      -0.00002891
Na       2.84515074      11.38060295       2.84515074      -0.00003225       0.00000000      -0.00000184
Na       8.53545221      11.38060295       2.84515074       0.00003260       0.00000000       0.00000334
Na      14.22575369      11.38060295       2.84515074       0.00002440       0.00000000      -0.00001478
Na      19.91605516      11.38060295       2.84515074      -0.00002401       0.00000000      -0.00001311
Na       2.84515074      17.07090443       2.84515074      -0.00009538      -0.00021167       0.00002427
Na       8.53545221      17.07090443       2.84515074       0.00009230      -0.00005515       0.00002544
Na      14.22575369      17.07090443       2.84515074       0.00008413       0.00005656      -0.00003438
Na      19.91605516      17.07090443       2.84515074      -0.00008763       0.00020947      -0.00002891
Na       2.84515074       0.00000000       8.53545221      -0.00004797       0.00000000       0.00006205
Na       8.53545221       0.00000000       8.53545221       0.00005056       0.00000000       0.00004000
Na      14.22575369       0.00000000       8.53545221       0.00004144       0.00000000      -0.00003495
Na      19.91605516       0.00000000       8.53545221      -0.00004272       0.00000000      -0.00005544
Na       2.84515074       5.69030148       8.53545221      -0.00003795       0.00001445       0.00003071
Na       8.53545221       5.69030148       8.53545221       0.00003535       0.00001197       0.00001808
Na      14.22575369       5.69030148       8.53545221       0.00002796      -0.00001098      -0.00001431
Na      19.91605516       5.69030148       8.53545221      -0.00002682      -0.00001180      -0.00003158
Na       2.84515074      11.38060295       8.53545221      -0.00002755       0.00000000       0.00000950
Na       8.53545221      11.38060295       8.53545221       0.00002489       0.00000000       0.00000080
Na      14.22575369      11.38060295       8.53545221       0.00001369       0.00000000       0.00000055
Na      19.91605516      11.38060295       8.53545221      -0.00001185       0.00000000      -0.00000465
Na       2.84515074      17.07090443       8.53545221      -0.00003795      -0.00001445       0.00003071
Na       8.53545221      17.07090443       8.53545221       0.00003535      -0.00001197       0.00001808
Na      14.22575369      17.07090443       8.53545221       0.00002796       0.00001098      -0.00001431
Na      19.91605516      17.07090443       8.53545221      -0.00002682       0.00001180      -0.00003158
Na       2.84515074       0.00000000      14.22575369      -0.00004797       0.00000000      -0.00006205
Na       8.53545221       0.00000000      14.22575369       0.00005056       0.00000000      -0.00004000
Na      14.22575369       0.00000000      14.22575369       0.00004144       0.00000000       0.00003495
Na      19.91605516       0.00000000      14.22575369      -0.00004272       0.00000000       0.00005544
Na       2.84515074       5.69030148      14.22575369      -0.00003795       0.00001445      -0.00003071
Na       8.53545221       5.69030148      14.22575369       0.00003535       0.00001197      -0.00001808
Na      14.22575369       5.69030148      14.22575369       0.00002796      -0.00001098       0.00001431
Na      19.91605516       5.69030148      14.22575369      -0.00002682      -0.00001180       0.00003158
Na       2.84515074      11.38060295      14.22575369      -0.00002755       0.00000000      -0.00000950
Na       8.53545221      11.38060295      14.22575369       0.00002489       0.00000000      -0.00000080
Na      14.22575369      11.38060295      14.22575369       0.00001369       0.00000000      -0.00000055
Na      19.91605516      11.38060295      14.22575369      -0.00001185       0.00000000       0.00000465
Na       2.84515074      17.07090443      14.22575369      -0.00003795      -0.00001445      -0.00003071
Na       8.53545221      17.07090443      14.22575369       0.00003535      -0.00001197      -0.00001808
Na      14.22575369      17.07090443      14.22575369       0.00002796       0.00001098       0.00001431
Na      19.91605516      17.07090443      14.22575369      -0.00002682       0.00001180       0.00003158
Na       2.84515074       0.00000000      19.91605516       0.00020311       0.00000000      -0.00202890
Na       8.53545221       0.00000000      19.91605516       0.00027864       0.00000000      -0.00005836
Na      14.22575369       0.00000000      19.91605516       0.00026878       0.00000000       0.00006113
Na      19.91605516       0.00000000      19.91605516       0.00021123       0.00000000       0.00201921
Na       2.84515074       5.69030148      19.91605516      -0.00009538       0.00021167      -0.00002427
Na       8.53545221       5.69030148      19.91605516       0.00009230       0.00005515      -0.00002544
Na      14.22575369       5.69030148      19.91605516       0.00008413      -0.00005656       0.00003438
Na      19.91605516       5.69030148      19.91605516      -0.00008763      -0.00020947       0.00002891
Na       2.84515074      11.38060295      19.91605516      -0.00003225       0.00000000       0.00000184
Na       8.53545221      11.38060295      19.91605516       0.00003260       0.00000000      -0.00000334
Na      14.22575369      11.38060295      19.91605516       0.00002440       0.00000000       0.00001478
Na      19.91605516      11.38060295      19.91605516      -0.00002401       0.00000000       0.00001311
Na       2.84515074      17.07090443      19.91605516      -0.00009538      -0.00021167      -0.00002427
Na       8.53545221      17.07090443      19.91605516       0.00009230      -0.00005515      -0.00002544
Na      14.22575369      17.07090443      19.91605516       0.00008413       0.00005656       0.00003438
Na      19.91605516      17.07090443      19.91605516      -0.00008763       0.00020947       0.00002891
Na       2.84515074       2.84515074       0.00000000       0.00020311       0.00202890      -0.00000000
Na       8.53545221       2.84515074       0.00000000       0.00027864       0.00005836      -0.00000000
Na      14.22575369       2.84515074       0.00000000       0.00026878      -0.00006113      -0.00000000
Na      19.91605516       2.84515074       0.00000000       0.00021123      -0.00201921      -0.00000000
Na       2.84515074       8.53545221       0.00000000      -0.00004797       0.00006205      -0.00000000
Na       8.53545221       8.53545221       0.00000000       0.00005056       0.00004000      -0.00000000
Na      14.22575369       8.53545221       0.00000000       0.00004144      -0.00003495      -0.00000000
Na      19.91605516       8.53545221       0.00000000      -0.00004272      -0.00005544      -0.00000000
Na       2.84515074      14.22575369       0.00000000      -0.00004797      -0.00006205      -0.00000000
Na       8.53545221      14.22575369       0.00000000       0.00005056      -0.00004000      -0.00000000
Na      14.22575369      14.22575369       0.00000000       0.00004144       0.00003495      -0.00000000
Na      19.91605516      14.22575369       0.00000000      -0.00004272       0.00005544      -0.00000000
Na       2.84515074      19.91605516       0.00000000       0.00020311      -0.00202890      -0.00000000
Na       8.53545221      19.91605516       0.00000000       0.00027864      -0.00005836      -0.00000000
Na      14.22575369      19.91605516       0.00000000       0.00026878       0.00006113      -0.00000000
Na      19.91605516      19.91605516       0.00000000       0.00021123       0.00201921      -0.00000000
Na       2.84515074       2.84515074       5.69030148      -0.00009538       0.00002427       0.00021167
Na       8.53545221       2.84515074       5.69030148       0.00009230       0.00002544       0.00005515
Na      14.22575369       2.84515074       5.69030148       0.00008413      -0.00003438      -0.00005656
Na      19.91605516       2.84515074       5.69030148      -0.00008763      -0.00002891      -0.00020947
Na       2.84515074       8.53545221       5.69030148      -0.00003795       0.00003071       0.00001445
Na       8.53545221       8.53545221       5.69030148       0.00003535       0.00001808       0.00001197
Na      14.22575369       8.53545221       5.69030148       0.00002796      -0.00001431      -0.00001098
Na      19.91605516       8.53545221       5.69030148      -0.00002682      -0.00003158      -0.00001180
Na       2.84515074      14.22575369       5.69030148      -0.00003795      -0.00003071       0.00001445
Na       8.53545221      14.22575369       5.69030148       0.00003535      -0.00001808       0.00001197
Na      14.22575369      14.22575369       5.69030148       0.00002796       0.00001431      -0.00001098
Na      19.91605516      14.22575369       5.69030148      -0.00002682       0.00003158      -0.00001180
Na       2.84515074      19.91605516       5.69030148      -0.00009538      -0.00002427       0.00021167
Na       8.53545221      19.91605516       5.69030148       0.00009230      -0.00002544       0.00005515
Na      14.22575369      19.91605516       5.69030148       0.00008413       0.00003438      -0.00005656
Na      19.91605516      19.91605516       5.69030148      -0.00008763       0.00002891      -0.00020947
Na       2.84515074       2.84515074      11.38060295      -0.00003225      -0.00000184      -0.00000000
Na       8.53545221       2.84515074      11.38060295       0.00003260       0.00000334      -0.00000000
Na      14.22575369       2.84515074      11.38060295       0.00002440      -0.00001478      -0.00000000
Na      19.91605516       2.84515074      11.38060295      -0.00002401      -0.00001311      -0.00000000
Na       2.84515074       8.53545221      11.38060295      -0.00002755       0.00000950      -0.00000000
Na       8.53545221       8.53545221      11.38060295       0.00002489       0.00000080      -0.00000000
Na      14.22575369       8.53545221      11.38060295       0.00001369       0.00000055      -0.00000000
Na      19.91605516       8.53545221      11.38060295      -0.00001185      -0.00000465      -0.00000000
Na       2.84515074      14.22575369      11.38060295      -0.00002755      -0.00000950      -0.00000000
Na       8.53545221      14.22575369      11.38060295       0.00002489      -0.00000080      -0.00000000
Na      14.22575369      14.22575369      11.38060295       0.00001369      -0.00000055      -0.00000000
Na      19.91605516      14.22575369      11.38060295      -0.00001185       0.00000465      -0.00000000
Na       2.84515074      19.91605516      11.38060295      -0.00003225       0.00000184      -0.00000000
Na       8.53545221      19.91605516      11.38060295       0.00003260      -0.00000334      -0.00000000
Na      14.22575369      19.91605516      11.38060295       0.00002440       0.00001478      -0.00000000
Na      19.91605516      19.91605516      11.38060295      -0.00002401       0.00001311      -0.00000000
Na       2.84515074       2.84515074      17.07090443      -0.00009538       0.00002427      -0.00021167
Na       8.53545221       2.84515074      17.07090443       0.00009230       0.00002544      -0.00005515
Na      14.22575369       2.84515074      17.07090443       0.00008413      -0.00003438       0.00005656
Na      19.91605516       2.84515074      17.07090443      -0.00008763      -0.00002891       0.00020947
Na       2.84515074       8.53545221      17.07090443      -0.00003795       0.00003071      -0.00001445
Na       8.53545221       8.53545221      17.07090443       0.00003535       0.00001808      -0.00001197
Na      14.22575369       8.53545221      17.07090443       0.00002796      -0.00001431       0.00001098
Na      19.91605516       8.53545221      17.07090443      -0.00002682      -0.00003158       0.00001180
Na       2.84515074      14.22575369      17.07090443      -0.00003795      -0.00003071      -0.00001445
Na       8.53545221      14.22575369      17.07090443       0.00003535      -0.00001808      -0.00001197
Na      14.22575369      14.22575369      17.07090443       0.00002796       0.00001431       0.00001098
Na      19.91605516      14.22575369      17.07090443      -0.00002682       0.00003158       0.00001180
Na       2.84515074      19.91605516      17.07090443      -0.00009538      -0.00002427      -0.00021167
Na       8.53545221      19.91605516      17.07090443       0.00009230      -0.00002544      -0.00005515
Na      14.22575369      19.91605516      17.07090443       0.00008413       0.00003438       0.00005656
Na      19.91605516      19.91605516      17.07090443      -0.00008763       0.00002891       0.00020947
Cl       2.84515074       2.84515074       2.84515074       0.00008707      -0.00051459      -0.00051459
Cl       8.53545221       2.84515074       2.84515074      -0.00015219      -0.00009262      -0.00009262
Cl      14.22575369       2.84515074       2.84515074      -0.00020946       0.00005914       0.00005914
Cl      19.91605516       2.84515074       2.84515074       0.00012813       0.00048363       0.00048363
Cl       2.84515074       8.53545221       2.84515074       0.00002972      -0.00002301      -0.00005975
Cl       8.53545221       8.53545221       2.84515074      -0.00001850      -0.00001828      -0.00002332
Cl      14.22575369       8.53545221       2.84515074      -0.00007554       0.00005325      -0.00001728
Cl      19.91605516       8.53545221       2.84515074       0.00006534       0.00004442       0.00000386
Cl       2.84515074      14.22575369       2.84515074       0.00002972       0.00002301      -0.00005975
Cl       8.53545221      14.22575369       2.84515074      -0.00001850       0.00001828      -0.00002332
Cl      14.22575369      14.22575369       2.84515074      -0.00007554      -0.00005325      -0.00001728
Cl      19.91605516      14.22575369       2.84515074       0.00006534      -0.00004442       0.00000386
Cl       2.84515074      19.91605516       2.84515074       0.00008707       0.00051459      -0.00051459
Cl       8.53545221      19.91605516       2.84515074      -0.00015219       0.00009262      -0.00009262
Cl      14.22575369      19.91605516       2.84515074      -0.00020946      -0.00005914       0.00005914
Cl      19.91605516      19.91605516       2.84515074       0.00012813      -0.00048363       0.00048363
Cl       2.84515074       2.84515074       8.53545221       0.00002972      -0.00005975      -0.00002301
Cl       8.53545221       2.84515074       8.53545221      -0.00001850      -0.00002332      -0.00001828
Cl      14.22575369       2.84515074       8.53545221      -0.00007554      -0.00001728       0.00005325
Cl      19.91605516       2.84515074       8.53545221       0.00006534       0.00000386       0.00004442
Cl       2.84515074       8.53545221       8.53545221      -0.00004150       0.00000223       0.00000223
Cl       8.53545221       8.53545221       8.53545221       0.00003057      -0.00002469      -0.00002469
Cl      14.22575369       8.53545221       8.53545221      -0.00005372       0.00003556       0.00003556
Cl      19.91605516       8.53545221       8.53545221       0.00004385       0.00001467       0.00001467
Cl       2.84515074      14.22575369       8.53545221      -0.00004150      -0.00000223       0.00000223
Cl       8.53545221      14.22575369       8.53545221       0.00003057       0.00002469      -0.00002469
Cl      14.22575369      14.22575369       8.53545221      -0.00005372      -0.00003556       0.00003556